8
step=0 time=0.000000 PE=0.011972 KE=0.271446 T=300.000339
0  9.237000  10.000000  10.000000
1  8.874000  10.514000  10.890000
1  8.874000  8.972000  10.000000
1  8.874000  10.514000  9.110000
0  10.763000  10.000000  10.000000
1  11.126000  11.028000  10.000000
1  11.126000  9.486000  10.890000
1  11.126000  9.486000  9.110000
8
step=50 time=50.000000 PE=0.191952 KE=0.323752 T=357.808304
0  9.266679  10.187013  10.016611
1  9.022029  10.836048  10.863525
1  8.652876  9.274796  10.066688
1  9.056588  10.689792  9.081683
0  10.738609  9.815441  9.981469
1  11.267785  10.219188  9.140167
1  11.124565  10.225526  10.893147
1  10.813136  8.725413  9.977668
8
step=100 time=100.000000 PE=0.059442 KE=0.226405 T=250.221475
0  9.320132  10.367673  9.989777
1  9.253352  11.066791  10.830393
1  8.512889  9.652578  10.023542
1  9.257184  10.921236  9.051484
0  10.673747  9.630104  10.015736
1  10.768648  8.965325  9.103010
1  11.485791  10.365575  9.994427
1  10.795076  9.054979  10.931449
8
step=150 time=150.000000 PE=0.226684 KE=0.264595 T=292.428077
0  9.437418  10.498005  9.923664
1  9.612777  11.216246  10.718666
1  8.474337  10.015266  10.144424
1  9.426430  11.023293  8.983196
0  10.567713  9.503325  10.062100
1  10.113082  8.549098  10.057961
1  11.242896  9.596433  9.215735
1  11.069335  9.583815  11.049650
8
step=200 time=200.000000 PE=0.122089 KE=0.169856 T=187.723940
0  9.572912  10.628633  9.887975
1  9.758541  11.408470  10.636313
1  8.524836  10.370797  9.833837
1  9.853079  10.979400  8.877562
0  10.428491  9.373605  10.128198
1  10.119467  8.870335  11.073887
1  10.285843  8.669050  9.315003
1  11.441525  9.675291  10.070687
8
step=250 time=250.000000 PE=0.259339 KE=0.261229 T=288.708216
0  9.747122  10.691108  9.786373
1  10.026843  11.442894  10.523502
1  8.650535  10.617736  9.802186
1  10.124388  11.003233  8.829574
0  10.247120  9.306535  10.206379
1  10.807890  9.470132  11.115229
1  9.425844  8.568788  10.331960
1  11.033116  8.925297  9.483919
8
step=300 time=300.000000 PE=0.142843 KE=0.153285 T=169.409519
0  9.890305  10.688420  9.708130
1  10.344837  11.392817  10.400498
1  8.853098  10.911327  9.509085
1  10.409577  10.705015  8.738177
0  10.106666  9.308684  10.286688
1  11.157054  9.139428  10.571558
1  9.581143  9.268693  11.232628
1  9.690378  8.617233  9.609804
8
step=350 time=350.000000 PE=0.234094 KE=0.235472 T=260.241724
0  10.061477  10.658299  9.600115
1  10.699315  11.398759  10.096082
1  9.057104  11.121894  9.497640
1  10.525665  10.433892  8.646954
0  9.952664  9.340092  10.402269
1  10.525276  8.542024  9.929599
1  10.125111  9.536860  11.460540
1  8.899033  8.985748  10.340778
8
step=400 time=400.000000 PE=0.172782 KE=0.133304 T=147.326331
0  10.206893  10.550179  9.518872
1  10.835761  11.231977  10.085198
1  9.323439  11.033763  9.141360
1  10.721529  10.149525  8.632820
0  9.787231  9.459192  10.489283
1  9.316729  8.619065  9.946752
1  10.738302  8.995535  10.814287
1  9.134257  9.858466  11.282412
8
step=450 time=450.000000 PE=0.164377 KE=0.197796 T=218.602985
0  10.306480  10.409172  9.437477
1  11.229505  10.892764  9.759531
1  9.586523  11.208888  9.202608
1  10.564559  9.784133  8.591812
0  9.688792  9.583611  10.555806
1  8.643140  9.513492  10.323350
1  10.204880  8.638722  10.683292
1  9.827728  10.047995  11.519445
8
step=500 time=500.000000 PE=0.178612 KE=0.150825 T=166.690908
0  10.380611  10.264316  9.380461
1  11.293599  10.786096  9.694285
1  9.771172  10.857120  8.698000
1  10.618911  9.348479  8.812698
0  9.617115  9.739141  10.617541
1  9.114060  10.561698  11.149086
1  8.839003  9.018169  10.337576
1  10.390348  9.387236  11.332157
