4
step=0 time=0.000000 PE=-0.094344 KE=0.116334 T=300.000339
0  2.000000  2.000000  2.000000
0  8.000000  2.000000  2.000000
0  2.000000  8.000000  2.000000
0  2.000000  2.000000  8.000000
4
step=100 time=19.645381 PE=-0.118571 KE=0.140565 T=362.485236
0  2.151736  2.115967  1.420482
0  7.734538  1.970910  1.835157
0  2.640887  7.666794  2.947533
0  1.472839  2.246329  7.796828
4
step=200 time=39.290762 PE=-0.462715 KE=0.484639 T=1249.778503
0  2.955791  2.650867  1.252109
0  6.783094  2.024382  1.634341
0  3.268161  6.763381  3.809671
0  0.992954  2.561370  7.303879
4
step=300 time=58.936144 PE=-0.677154 KE=0.699060 T=1802.724432
0  2.224643  3.893819  1.133468
0  6.980069  1.909810  1.689495
0  3.916516  4.972091  4.944639
0  0.878772  3.224280  6.232398
4
step=400 time=78.581525 PE=-0.510240 KE=0.532162 T=1372.330202
0  1.549592  4.432219  1.406452
0  6.529872  2.395214  2.272197
0  5.552492  3.410937  5.745619
0  0.368044  3.761630  4.575732
4
step=500 time=98.226906 PE=-0.428858 KE=0.450758 T=1162.406937
0  2.464005  5.023258  0.276913
0  5.348426  3.146720  1.875736
0  6.388146  2.017817  6.933863
0  19.799423  3.812205  4.913489
4
step=600 time=117.872287 PE=-0.218401 KE=0.240379 T=619.884289
0  2.412976  6.008580  19.215124
0  4.789856  3.186707  2.610921
0  6.909448  0.844227  7.589170
0  19.887720  3.960486  4.584785
4
step=700 time=137.517669 PE=-0.359247 KE=0.381060 T=982.670040
0  2.414832  6.589976  18.823746
0  3.985594  3.416756  3.394044
0  7.271705  19.822183  7.922228
0  0.327869  4.171085  3.859982
4
step=800 time=157.163050 PE=-0.125388 KE=0.147363 T=380.018190
0  2.428319  6.790128  19.060608
0  4.825420  3.468337  3.610870
0  7.545349  18.900855  8.120352
0  19.200912  4.840681  3.208170
4
step=900 time=176.808431 PE=-0.341690 KE=0.363624 T=937.707302
0  2.177515  6.602846  19.987555
0  5.052615  3.742222  3.652849
0  7.770120  18.057985  8.239144
0  18.999750  5.596947  2.120452
4
step=1000 time=196.453812 PE=-0.140832 KE=0.162930 T=420.161163
0  3.206405  6.276727  0.947949
0  4.801659  4.334733  3.297527
0  7.974840  17.255408  8.324163
0  18.017096  6.133131  1.430360
